 Gaussian 09, Revision D.01,
 Gaussian 09:  ES64L-G09RevD.01 24-Apr-2013

 ----------------------------------------
 #p freq b3lyp/6-31g(d) geom=connectivity
 ----------------------------------------

 --------------------
 transition structure
 --------------------
 Symbolic Z-matrix:
 Charge =  0 Multiplicity = 1

                         Standard orientation:
 ---------------------------------------------------------------------
 Center     Atomic      Atomic             Coordinates (Angstroms)
 Number     Number       Type             X           Y           Z
 ---------------------------------------------------------------------
      1          6           0       -1.466309    0.784168   -0.289984
      2          6           0       -1.291057   -0.472055    0.261839
      3          8           0       -0.511026   -1.358456   -0.252221
      4          6           0        1.285570   -0.900284    0.182034
      5          6           0        1.374702    0.412704   -0.301796
      6          6           0        0.668679    1.425295    0.322236
      7          1           0       -2.145896    1.492398    0.178794
      8          1           0       -1.225400    0.953689   -1.332994
      9          1           0       -1.676663   -0.646151    1.281812
     10          1           0        1.766394   -1.711906   -0.353320
     11          1           0        1.173540   -1.069495    1.248816
     12          1           0        1.692496    0.557034   -1.332675
     13          1           0        0.629027    2.424945   -0.101698
     14          1           0        0.445205    1.368175    1.383056
 ---------------------------------------------------------------------

 SCF Done:  E(RB3LYP) =  -270.461127953     A.U. after   14 cycles

 The electronic state is 1-A.
 Alpha  occ. eigenvalues --  -19.13400 -10.22917 -10.22252 -10.21110 -10.18645
 Alpha  occ. eigenvalues --  -10.18425  -1.00187  -0.79743  -0.73272  -0.67405
 Alpha  occ. eigenvalues --   -0.56854  -0.55476  -0.48640  -0.46006  -0.44252
 Alpha  occ. eigenvalues --   -0.43137  -0.39563  -0.38592  -0.37046  -0.36558
 Alpha  occ. eigenvalues --   -0.27175  -0.25233  -0.22261
 Alpha virt. eigenvalues --   -0.02719   0.01061   0.09107   0.10847   0.11810
 Alpha virt. eigenvalues --    0.13458   0.14677   0.16843   0.18231   0.18857
 Alpha virt. eigenvalues --    0.20706   0.30027   0.30452   0.33869   0.35125

 Mulliken charges:
               1
     1  C   -0.346682
     2  C    0.199483
     3  O   -0.457449
     4  C   -0.208495
     5  C   -0.049471
     6  C   -0.323544
     7  H    0.140182
     8  H    0.161982
     9  H    0.091865
    10  H    0.170923
    11  H    0.165237
    12  H    0.132631
    13  H    0.161403
    14  H    0.161934
 Sum of Mulliken charges =   0.00000

 Dipole moment (field-independent basis, Debye):
    X=              0.7197    Y=              1.8014    Z=              0.8009  Tot=              2.0987
 Quadrupole moment (field-independent basis, Debye-Ang):
   XX=            -36.6359   YY=            -37.0218   ZZ=            -34.7719
   XY=             -3.1070   XZ=             -1.5681   YZ=             -1.4287

  Exact polarizability:  71.046  -5.602  65.284  -4.077  -2.513  47.560
 Approx polarizability: 120.554  -8.604 117.544  -5.438  -0.911  70.024

 ******    1 imaginary frequencies (negative Signs) ******

                      1                      2                      3
                      A                      A                      A
 Frequencies --   -478.9527               169.6412               266.9659
 Red. masses --      9.0920                 2.9424                 6.7659
 Frc consts  --      1.2288                 0.0499                 0.2841
 IR Inten    --     18.1958                 2.9917                18.9698

                      4                      5                      6
                      A                      A                      A
 Frequencies --    308.2790               379.2742               426.5562
 Red. masses --      3.2926                 2.2279                 2.2782
 Frc consts  --      0.1844                 0.1888                 0.2442
 IR Inten    --      3.0783                 1.1059                 6.3264

                      7                      8                      9
                      A                      A                      A
 Frequencies --    465.2765               528.6720               736.1796
 Red. masses --      1.9514                 2.3691                 1.3816
 Frc consts  --      0.2489                 0.3901                 0.4412
 IR Inten    --      0.4164                12.9146                25.5975

                     10                     11                     12
                      A                      A                      A
 Frequencies --    807.5046               873.4170               896.6006
 Red. masses --      1.2283                 1.1462                 1.2496
 Frc consts  --      0.4719                 0.5152                 0.5918
 IR Inten    --      4.4047                37.4462                 4.7753

                     13                     14                     15
                      A                      A                      A
 Frequencies --    962.0106               992.3317               995.8107
 Red. masses --      1.0717                 1.5359                 1.4492
 Frc consts  --      0.5844                 0.8911                 0.8467
 IR Inten    --      0.3234                13.4882                10.2989

                     16                     17                     18
                      A                      A                      A
 Frequencies --   1007.6129              1035.1967              1057.0502
 Red. masses --      1.2166                 1.3292                 1.5523
 Frc consts  --      0.7278                 0.8392                 1.0219
 IR Inten    --     14.6377                 1.3062                 2.0044

                     19                     20                     21
                      A                      A                      A
 Frequencies --   1090.9649              1262.9637              1271.7575
 Red. masses --      1.2083                 1.8487                 1.9458
 Frc consts  --      0.8473                 1.7374                 1.8542
 IR Inten    --      1.9166                16.5371                 7.1809

                     22                     23                     24
                      A                      A                      A
 Frequencies --   1301.2648              1359.4406              1449.7774
 Red. masses --      1.8080                 1.6071                 1.3278
 Frc consts  --      1.8038                 1.7499                 1.6443
 IR Inten    --      0.4450                13.1921                 9.8481

                     25                     26                     27
                      A                      A                      A
 Frequencies --   1485.9483              1548.5834              1560.1020
 Red. masses --      1.3544                 1.4871                 1.5438
 Frc consts  --      1.7619                 2.1011                 2.2139
 IR Inten    --      8.8165                 9.4577                 8.2309

                     28                     29                     30
                      A                      A                      A
 Frequencies --   1634.3018              2992.2503              3161.3262
 Red. masses --      3.4020                 1.0847                 1.0559
 Frc consts  --      5.3537                 5.7222                 6.2172
 IR Inten    --     39.7060                98.4716                 9.3503

                     31                     32                     33
                      A                      A                      A
 Frequencies --   3169.5488              3173.9275              3177.2210
 Red. masses --      1.0695                 1.0658                 1.0709
 Frc consts  --      6.3302                 6.3261                 6.3693
 IR Inten    --     14.1250                13.3430                 4.2096

                     34                     35                     36
                      A                      A                      A
 Frequencies --   3251.5427              3252.8389              3262.0842
 Red. masses --      1.1097                 1.1131                 1.1163
 Frc consts  --      6.9125                 6.9392                 6.9987
 IR Inten    --      4.0010                12.1555                 8.8780

 - Thermochemistry -
 -------------------
 Temperature   298.150 Kelvin.  Pressure   1.00000 Atm.
 Atom     1 has atomic number  6 and mass  13.00335

 Molecular mass:    85.06087 amu.
 Principal axes and moments of inertia in atomic units:
                           1         2         3
     Eigenvalues --   379.11930 471.09180 746.72562
           X            0.99157  -0.12800  -0.02037
           Y            0.12766   0.99167  -0.01693
           Z            0.02236   0.01419   0.99965
 This molecule is an asymmetric top.
 Rotational symmetry number  1.
 Rotational temperatures (Kelvin)      0.22846     0.18386     0.11599
 Rotational constants (GHZ):           4.76035     3.83098     2.41687
    1 imaginary frequencies ignored.
 Zero-point vibrational energy     306927.2 (Joules/Mol)
                                   73.35736 (Kcal/Mol)
 Warning -- explicit consideration of   7 degrees of freedom as
           vibrations may cause significant error
 Vibrational temperatures:    244.08   384.10   443.54   545.69   613.72
          (Kelvin)            669.43   760.64  1059.20  1161.82  1256.65
                             1290.01  1384.12  1427.74  1432.75  1449.73
                             1489.42  1520.86  1569.65  1817.12  1829.77
                             1872.23  1955.93  2085.90  2137.95  2228.06
                             2244.64  2351.39  4305.18  4548.44  4560.27
                             4566.57  4571.31  4678.24  4680.10  4693.41

 Zero-point correction=                           0.116902 (Hartree/Particle)
 Thermal correction to Energy=                    0.122885
 Thermal correction to Enthalpy=                  0.123830
 Thermal correction to Gibbs Free Energy=         0.087793
 Sum of electronic and zero-point Energies=           -270.344226
 Sum of electronic and thermal Energies=              -270.338243
 Sum of electronic and thermal Enthalpies=            -270.337298
 Sum of electronic and thermal Free Energies=         -270.373335

                     E (Thermal)             CV                S
                      KCal/Mol        Cal/Mol-Kelvin    Cal/Mol-Kelvin
 Total                   77.112             22.557             75.846
 Electronic               0.000              0.000              0.000
 Translational            0.889              2.981             39.236
 Rotational               0.889              2.981             26.392
 Vibrational             75.334             16.596             10.219
 Vibration     1          0.625              1.880              2.439
 Vibration     2          0.672              1.734              1.616
 Vibration     3          0.698              1.658              1.372
 Vibration     4          0.749              1.514              1.042
 Vibration     5          0.788              1.412              0.870
 Vibration     6          0.823              1.327              0.751
 Vibration     7          0.884              1.187              0.590

 Optimization completed.
    -- Stationary point found.
 Normal termination of Gaussian 09 at Sun Apr  2 00:31:33 2017.
