 Gaussian 09, Revision D.01,
 Gaussian 09:  ES64L-G09RevD.01 24-Apr-2013

 ----------------------------------------
 #p freq b3lyp/6-31g(d) geom=connectivity
 ----------------------------------------

 ----------------------
 ground state structure
 ----------------------
 Symbolic Z-matrix:
 Charge =  0 Multiplicity = 1

                         Standard orientation:
 ---------------------------------------------------------------------
 Center     Atomic      Atomic             Coordinates (Angstroms)
 Number     Number       Type             X           Y           Z
 ---------------------------------------------------------------------
      1          6           0        2.529357    0.361330   -0.000020
      2          6           0        1.650985   -0.646172   -0.000002
      3          8           0        0.294333   -0.586301    0.000029
      4          6           0       -0.296838    0.704706    0.000021
      5          6           0       -1.792958    0.591589   -0.000009
      6          6           0       -2.486162   -0.545043   -0.000017
      7          1           0        3.588621    0.131739   -0.000045
      8          1           0        2.248176    1.407720   -0.000013
      9          1           0        1.967584   -1.685756   -0.000009
     10          1           0        0.043549    1.268971   -0.883806
     11          1           0        0.043514    1.268967    0.883863
     12          1           0       -2.309465    1.551442   -0.000020
     13          1           0       -3.572272   -0.540878   -0.000037
     14          1           0       -1.990668   -1.510251   -0.000004
 ---------------------------------------------------------------------

 SCF Done:  E(RB3LYP) =  -270.507231818     A.U. after   14 cycles

 The electronic state is 1-A.
 Alpha  occ. eigenvalues --  -19.17906 -10.24615 -10.23949 -10.19346 -10.17863
 Alpha  occ. eigenvalues --  -10.16888  -1.06474  -0.79529  -0.74153  -0.69381
 Alpha  occ. eigenvalues --   -0.59693  -0.53849  -0.51332  -0.47290  -0.47231
 Alpha  occ. eigenvalues --   -0.44604  -0.41090  -0.38121  -0.35312  -0.34905
 Alpha  occ. eigenvalues --   -0.33642  -0.25713  -0.22784
 Alpha virt. eigenvalues --    0.02127   0.04230   0.10023   0.11555   0.12830
 Alpha virt. eigenvalues --    0.14679   0.16002   0.17122   0.17239   0.19284
 Alpha virt. eigenvalues --    0.21116   0.29225   0.30076   0.35683   0.36632

 Mulliken charges:
               1
     1  C   -0.401328
     2  C    0.160114
     3  O   -0.446946
     4  C   -0.054628
     5  C   -0.100437
     6  C   -0.317290
     7  H    0.142906
     8  H    0.141309
     9  H    0.142889
    10  H    0.150628
    11  H    0.150629
    12  H    0.132450
    13  H    0.139563
    14  H    0.160140
 Sum of Mulliken charges =   0.00000

 Dipole moment (field-independent basis, Debye):
    X=             -0.0844    Y=              0.8535    Z=              0.0000  Tot=              0.8576
 Quadrupole moment (field-independent basis, Debye-Ang):
   XX=            -34.5257   YY=            -33.4993   ZZ=            -39.5086
   XY=             -1.4202   XZ=              0.0000   YZ=              0.0000

  Exact polarizability:  75.884   8.562  59.349   0.000   0.000  27.441
 Approx polarizability:  94.910  22.312  95.112   0.000   0.000  38.714

                      1                      2                      3
                      A                      A                      A
 Frequencies --     69.9135               166.0863               185.6614
 Red. masses --      4.3389                 1.6597                 3.2319
 Frc consts  --      0.0125                 0.0270                 0.0656
 IR Inten    --      0.2569                 0.0642                 0.2462

                      4                      5                      6
                      A                      A                      A
 Frequencies --    255.9422               284.2279               553.5629
 Red. masses --      1.7923                 3.8421                 2.7945
 Frc consts  --      0.0692                 0.1829                 0.5045
 IR Inten    --      7.3658                 1.4580                 1.8538

                      7                      8                      9
                      A                      A                      A
 Frequencies --    573.5155               619.5932               716.9076
 Red. masses --      1.2465                 2.3572                 1.5628
 Frc consts  --      0.2416                 0.5332                 0.4732
 IR Inten    --      8.8258                 0.1599                 0.4809

                     10                     11                     12
                      A                      A                      A
 Frequencies --    817.1709               934.0505               948.1146
 Red. masses --      1.3258                 2.9311                 1.3344
 Frc consts  --      0.5216                 1.5067                 0.7068
 IR Inten    --     57.9052                 2.6965                33.6969

                     13                     14                     15
                      A                      A                      A
 Frequencies --    951.7877               997.0617              1031.8866
 Red. masses --      2.2153                 1.1505                 1.0514
 Frc consts  --      1.1824                 0.6739                 0.6596
 IR Inten    --     12.6439                13.1147                 9.4053

                     16                     17                     18
                      A                      A                      A
 Frequencies --   1034.9286              1058.8518              1124.0389
 Red. masses --      1.8712                 1.6665                 1.8289
 Frc consts  --      1.1808                 1.1008                 1.3614
 IR Inten    --     38.8413                12.1265                16.0968

                     19                     20                     21
                      A                      A                      A
 Frequencies --   1251.5832              1272.0589              1334.3006
 Red. masses --      4.0157                 1.0715                 1.2824
 Frc consts  --      3.7062                 1.0215                 1.3452
 IR Inten    --    185.1090                 0.5445                 2.3721

                     22                     23                     24
                      A                      A                      A
 Frequencies --   1369.7869              1428.2503              1467.2639
 Red. masses --      1.2985                 1.3485                 1.2722
 Frc consts  --      1.4355                 1.6208                 1.6136
 IR Inten    --     64.2961                25.3832                 5.4802

                     25                     26                     27
                      A                      A                      A
 Frequencies --   1468.4076              1530.6054              1691.0429
 Red. masses --      1.1740                 1.0769                 4.2229
 Frc consts  --      1.4914                 1.4864                 7.1150
 IR Inten    --      3.7075                15.2686               162.5529

                     28                     29                     30
                      A                      A                      A
 Frequencies --   1743.0691              2989.2278              3012.7620
 Red. masses --      4.6831                 1.0553                 1.1054
 Frc consts  --      8.3833                 5.5555                 5.9114
 IR Inten    --      1.9459                23.3298                42.3852

                     31                     32                     33
                      A                      A                      A
 Frequencies --   3159.7776              3181.2868              3190.1462
 Red. masses --      1.0815                 1.0684                 1.0545
 Frc consts  --      6.3617                 6.3710                 6.3231
 IR Inten    --     15.0668                 9.1570                 4.2320

                     34                     35                     36
                      A                      A                      A
 Frequencies --   3207.9903              3263.8085              3265.2039
 Red. masses --      1.0933                 1.1160                 1.1081
 Frc consts  --      6.6292                 7.0041                 6.9608
 IR Inten    --     11.3839                12.6937                12.0904

 - Thermochemistry -
 -------------------
 Temperature   298.150 Kelvin.  Pressure   1.00000 Atm.
 Atom     1 has atomic number  6 and mass  13.00335

 Molecular mass:    85.06087 amu.
 Principal axes and moments of inertia in atomic units:
                           1         2         3
     Eigenvalues --   145.05320 988.479931122.28747
           X            0.99999   0.00343   0.00000
           Y           -0.00343   0.99999   0.00000
           Z            0.00000   0.00000   1.00000
 This molecule is an asymmetric top.
 Rotational symmetry number  1.
 Rotational temperatures (Kelvin)      0.59712     0.08762     0.07718
 Rotational constants (GHZ):          12.44193     1.82577     1.60809
 Zero-point vibrational energy     311925.5 (Joules/Mol)
                                   74.55199 (Kcal/Mol)
 Warning -- explicit consideration of   8 degrees of freedom as
           vibrations may cause significant error
 Vibrational temperatures:    100.59   238.96   267.13   368.24   408.94
          (Kelvin)            796.45   825.16   891.46  1031.47  1175.73
                             1343.89  1364.12  1369.41  1434.55  1484.65
                             1489.03  1523.45  1617.24  1800.75  1830.21
                             1919.76  1970.82  2054.93  2111.06  2112.71
                             2202.20  2433.03  2507.88  4300.83  4334.69
                             4546.21  4577.16  4589.90  4615.58  4695.89
                             4697.89

 Zero-point correction=                           0.118806 (Hartree/Particle)
 Thermal correction to Energy=                    0.125603
 Thermal correction to Enthalpy=                  0.126547
 Thermal correction to Gibbs Free Energy=         0.088176
 Sum of electronic and zero-point Energies=           -270.388426
 Sum of electronic and thermal Energies=              -270.381629
 Sum of electronic and thermal Enthalpies=            -270.380684
 Sum of electronic and thermal Free Energies=         -270.419056

                     E (Thermal)             CV                S
                      KCal/Mol        Cal/Mol-Kelvin    Cal/Mol-Kelvin
 Total                   78.817             23.714             80.759
 Electronic               0.000              0.000              0.000
 Translational            0.889              2.981             39.236
 Rotational               0.889              2.981             26.578
 Vibrational             77.040             17.752             14.945
 Vibration     1          0.598              1.968              4.156
 Vibration     2          0.624              1.884              2.479
 Vibration     3          0.632              1.859              2.271
 Vibration     4          0.666              1.753              1.689
 Vibration     5          0.683              1.703              1.508
 Vibration     6          0.909              1.132              0.537
 Vibration     7          0.930              1.089              0.498
 Vibration     8          0.980              0.991              0.417

 Optimization completed.
    -- Stationary point found.
 Normal termination of Gaussian 09 at Sun Apr  2 00:31:26 2017.
